                         Program Version 6.0.0  -   RELEASE  -
|  1> ! PBEh-3c opt freq
|  2>
|  3> %pal
|  4> nprocs 48
|  5> end
|  6>
|  7> %maxcore 1500
|  8>
|  9> * xyz 0 1
| 10>  O                 -1.16615068    1.10939111    0.00000000
| 11>  H                 -0.20615068    1.10939111    0.00000000
| 12>  H                 -1.48660526    2.01432694    0.00000000
| 13> **                         ****END OF INPUT****
 Total Charge           Charge          ....    0
 Multiplicity           Mult            ....    1
 Number of Electrons    NEL             ....   10
Dispersion correction           -0.000209463
FINAL SINGLE POINT ENERGY       -76.257474598172
Dispersion correction             ... done (  0.1 sec)
Dispersion correction           -0.000209522
FINAL SINGLE POINT ENERGY       -76.257929843966
Dispersion correction             ... done (  0.1 sec)
Dispersion correction           -0.000209562
FINAL SINGLE POINT ENERGY       -76.258047040919
Dispersion correction             ... done (  0.1 sec)
Dispersion correction           -0.000209564
FINAL SINGLE POINT ENERGY       -76.258048910518
Dispersion correction             ... done (  0.1 sec)
                    ***********************HURRAY********************

CARTESIAN COORDINATES (ANGSTROEM)
---------------------------------
  O     -1.177260    1.093672    0.000000
  H     -0.220673    1.131440    0.000000
  H     -1.460974    2.007998    0.000000

 Multiplicity           Mult            ....    1
 Number of Electrons    NEL             ....   10
 Basis Dimension        Dim             ....   19

ORBITAL ENERGIES
----------------

  NO   OCC          E(Eh)            E(eV)
   0   2.0000     -19.473421      -529.8987
   1   2.0000      -1.103463       -30.0268
   2   2.0000      -0.584082       -15.8937
   3   2.0000      -0.433732       -11.8024
   4   2.0000      -0.356583        -9.7031
   5   0.0000       0.132541         3.6066
   6   0.0000       0.210756         5.7350
   7   0.0000       0.876748        23.8575
   8   0.0000       0.981477        26.7073
   9   0.0000       0.991727        26.9863

MULLIKEN ATOMIC CHARGES
-----------------------
   0 O :   -0.818183
   1 H :    0.409093
   2 H :    0.409089
Sum of atomic charges:   -0.0000000

LOEWDIN ATOMIC CHARGES
----------------------
   0 O :   -0.597194
   1 H :    0.298599
   2 H :    0.298595

  Mayer bond orders larger than 0.100000
B(  0-O ,  1-H ) :   0.8150 B(  0-O ,  2-H ) :   0.8150

Dispersion correction           -0.000209564
FINAL SINGLE POINT ENERGY       -76.258048925252

DIPOLE MOMENT
-------------

Method             : SCF
Type of density    : Electron Density
Multiplicity       :   1
Irrep              :   0
Energy             :   -76.2591722473522395 Eh
Relativity type    :
Basis              : AO
                                X                 Y                 Z
Electronic contribution:     -0.072274251      -0.102279923      -0.000000000
Nuclear contribution   :      0.560073174       0.792485835       0.000000000
                        -----------------------------------------
Total Dipole Moment    :      0.487798923       0.690205912      -0.000000000
                        -----------------------------------------
Magnitude (a.u.)       :      0.845181631
Magnitude (Debye)      :      2.148280980

VIBRATIONAL FREQUENCIES
-----------------------

Scaling factor for frequencies =  1.000000000  (already applied!)

     0:       0.00 cm**-1
     1:       0.00 cm**-1
     2:       0.00 cm**-1
     3:       0.00 cm**-1
     4:       0.00 cm**-1
     5:       0.00 cm**-1
     6:    1732.27 cm**-1
     7:    3917.13 cm**-1
     8:    4049.64 cm**-1

IR SPECTRUM
-----------

 Mode   freq       eps      Int      T**2         TX        TY        TZ
       cm**-1   L/(mol*cm) km/mol    a.u.
----------------------------------------------------------------------------
  6:   1732.27   0.019593   99.02  0.003530  ( 0.034287  0.048519  0.000000)
  7:   3917.13   0.001829    9.24  0.000146  (-0.006939 -0.009877  0.000000)
  8:   4049.64   0.008468   42.79  0.000653  (-0.020850  0.014758 -0.000000)

--------------------------
THERMOCHEMISTRY AT 298.15K
--------------------------

Temperature         ...   298.15 K
Pressure            ...     1.00 atm
Total Mass          ...    18.02 AMU
Quasi RRHO          ...     True
Cut-Off Frequency   ...     1.00 cm^-1

Throughout the following assumptions are being made:
  (1) The electronic state is orbitally nondegenerate
  (2) There are no thermally accessible electronically excited states
  (3) Hindered rotations indicated by low frequency modes are not
      treated as such but are treated as vibrations and this may
      cause some error
  (4) All equations used are the standard statistical mechanics
      equations for an ideal gas
  (5) All vibrations are strictly harmonic

freq.    1732.27  E(vib)   ...       0.00
freq.    3917.13  E(vib)   ...       0.00
freq.    4049.64  E(vib)   ...       0.00

------------
INNER ENERGY
------------

The inner energy is: U= E(el) + E(ZPE) + E(vib) + E(rot) + E(trans)
    E(el)   - is the total energy from the electronic structure calculation
              = E(kin-el) + E(nuc-el) + E(el-el) + E(nuc-nuc)
    E(ZPE)  - the the zero temperature vibrational energy from the frequency calculation
    E(vib)  - the the finite temperature correction to E(ZPE) due to population
              of excited vibrational states
    E(rot)  - is the rotational thermal energy
    E(trans)- is the translational thermal energy

Summary of contributions to the inner energy U:
Electronic energy                ...    -76.25804893 Eh
Zero point energy                ...      0.02209605 Eh      13.87 kcal/mol
Thermal vibrational correction   ...      0.00000185 Eh       0.00 kcal/mol
Thermal rotational correction    ...      0.00141627 Eh       0.89 kcal/mol
Thermal translational correction ...      0.00141627 Eh       0.89 kcal/mol
-----------------------------------------------------------------------
Total thermal energy                    -76.23311849 Eh

Summary of corrections to the electronic energy:
(perhaps to be used in another calculation)
Total thermal correction                  0.00283439 Eh       1.78 kcal/mol
Non-thermal (ZPE) correction              0.02209605 Eh      13.87 kcal/mol
-----------------------------------------------------------------------
Total correction                          0.02493044 Eh      15.64 kcal/mol

--------
ENTHALPY
--------

The enthalpy is H = U + kB*T
                kB is Boltzmann's constant
Total thermal energy              ...    -76.23311849 Eh
Thermal Enthalpy correction       ...      0.00094421 Eh       0.59 kcal/mol
-----------------------------------------------------------------------
Total Enthalpy                    ...    -76.23217428 Eh

Note: Rotational entropy computed according to Herzberg
Infrared and Raman Spectra, Chapter V,1, Van Nostrand Reinhold, 1945
Point Group:  C2v, Symmetry Number:   2
Rotational constants in cm-1:    27.708373    14.500243     9.518865

Vibrational entropy computed according to the QRRHO of S. Grimme
Chem.Eur.J. 2012 18 9955 using a reference frequency of 100.0 cm-1

-------
ENTROPY
-------

The entropy contributions are T*S = T*(S(el)+S(vib)+S(rot)+S(trans))
     S(el)   - electronic entropy
     S(vib)  - vibrational entropy
     S(rot)  - rotational entropy
     S(trans)- translational entropy
The entropies will be listed as multiplied by the temperature to get
units of energy

Electronic entropy                ...      0.00000000 Eh      0.00 kcal/mol
Vibrational entropy               ...      0.00000207 Eh      0.00 kcal/mol
Rotational entropy                ...      0.00496200 Eh      3.11 kcal/mol
Translational entropy             ...      0.01644380 Eh     10.32 kcal/mol
-----------------------------------------------------------------------
Final entropy term                ...      0.02140787 Eh     13.43 kcal/mol

In case the symmetry of your molecule has not been determined correctly
or in case you have a reason to use a different symmetry number we print
out the resulting rotational entropy values for sn=1,12:

 non-linear molecules -----------------------------------
|  sn= 1 | S(rot)=       0.00561645 Eh      3.52 kcal/mol|
|  sn= 2 | S(rot)=       0.00496200 Eh      3.11 kcal/mol|
|  sn= 3 | S(rot)=       0.00457916 Eh      2.87 kcal/mol|
|  sn= 4 | S(rot)=       0.00430754 Eh      2.70 kcal/mol|
|  sn= 5 | S(rot)=       0.00409685 Eh      2.57 kcal/mol|
|  sn= 6 | S(rot)=       0.00392471 Eh      2.46 kcal/mol|
|  sn= 7 | S(rot)=       0.00377916 Eh      2.37 kcal/mol|
|  sn= 8 | S(rot)=       0.00365308 Eh      2.29 kcal/mol|
|  sn= 9 | S(rot)=       0.00354188 Eh      2.22 kcal/mol|
|  sn=10 | S(rot)=       0.00344240 Eh      2.16 kcal/mol|
|  sn=11 | S(rot)=       0.00335241 Eh      2.10 kcal/mol|
|  sn=12 | S(rot)=       0.00327025 Eh      2.05 kcal/mol|
 linear molecules ---------------------------------------
|  Dinfh | S(rot)=       0.00319831 Eh      2.01 kcal/mol|
|  Cinfv | S(rot)=       0.00385276 Eh      2.42 kcal/mol|
 --------------------------------------------------------

-------------------
GIBBS FREE ENERGY
-------------------

The Gibbs free energy is G = H - T*S

Total enthalpy                    ...    -76.23217428 Eh
Total entropy correction          ...     -0.02140787 Eh    -13.43 kcal/mol
-----------------------------------------------------------------------
Final Gibbs free energy         ...    -76.25358215 Eh

For completeness - the Gibbs free energy minus the electronic energy
G-E(el)                           ...      0.00446678 Eh      2.80 kcal/mol

                             ****ORCA TERMINATED NORMALLY****
TOTAL RUN TIME: 0 days 0 hours 1 minutes 58 seconds 989 msec
